
                                 *****************
                                 * O   R   C   A *
                                 *****************

           --- An Ab Initio, DFT and Semiempirical electronic structure package ---

                  ######################################################
                  #                        -***-                       #
                  #  Department of molecular theory and spectroscopy   #
                  #              Directorship: Frank Neese             #
                  #   Max Planck Institute for Bioinorganic Chemistry  #
                  #                  D-45470 Muelheim/Ruhr             #
                  #                       Germany                      #
                  #                                                    #
                  #                  All rights reserved               #
                  #                        -***-                       #
                  ######################################################


                         Program Version 2.9.1 -  RELEASE  -


 With contributions from (in alphabetic order):
   Ute Becker             : Parallelization
   Dmitry Ganyushin       : Spin-Orbit,Spin-Spin,Magnetic field MRCI
   Andreas Hansen         : Spin unrestricted coupled pair/coupled cluster methods
   Dimitrios Liakos       : Parallel MDCI
   Robert Izsak           : Overlap fitted RIJCOSX
   Christian Kollmar      : KDIIS, orbital optimized coupled pair methods, Brueckner methods
   Simone Kossmann        : Meta GGA functionals, improved MP2 methods
   Taras Petrenko         : TD-DFT gradient, Resonance Raman, ABS, fluorescence, XAS, NRVS
   Christoph Reimann      : Effective Core Potentials
   Michael Roemelt        : Restricted open shell CI
   Christoph Riplinger    : Improved optimizer, TS searches, QM/MM
   Barbara Sandhoefer     : DKH, picture change effects
   Igor Schapiro          : Molecular dynamics
   Kantharuban Sivalingam : CASSCF and multireference perturbation theory
   Boris Wezisla          : Elementary symmetry handling
   Frank Wennmohs         : Technical directorship


 We gratefully acknowledge several collegues who have allowed us to
 interface, adapt or use parts of their codes:
   Stefan Grimme                                : VdW corrections, initial TS optimization
                                                  and many helpful discussions
   Ed Valeev                                    : LibInt (2-el integral package), F12 methods
   Andreas Klamt, Michael Diedenhofen           : otool_cosmo (COSMO solvation model)
   Frank Weinhold                               : gennbo (NPA and NBO analysis)


 Your calculation uses the libint2 library for the computation of 2-el integrals
 For citations please refer to: http://libint.valeyev.net

Your calculation utilizes the basis: cc-VTZ
Cite in your paper:
 H     : T.H. Dunning, Jr. J. Chem. Phys. 90, 1007 (1989).
 He    : D.E. Woon and T.H. Dunning, Jr. J. Chem. Phys. 100, 2975 (1994).
Li - Ne: T.H. Dunning, Jr. J. Chem. Phys. 90, 1007 (1989).
Na - Mg: D.E. Woon and T.H. Dunning, Jr.  (to be published)
Al - Ar: D.E. Woon and T.H. Dunning, Jr.  J. Chem. Phys. 98, 1358 (1993).

Your calculation utilizes polarization functions from the basis: cc-pVTZ
Cite in your paper:
 H     : T.H. Dunning, Jr. J. Chem. Phys. 90, 1007 (1989).
 He    : D.E. Woon and T.H. Dunning, Jr. J. Chem. Phys. 100, 2975 (1994).
Li - Ne: T.H. Dunning, Jr. J. Chem. Phys. 90, 1007 (1989).
Na - Mg: D.E. Woon and T.H. Dunning, Jr.  (to be published)
Al - Ar: D.E. Woon and T.H. Dunning, Jr.  J. Chem. Phys. 98, 1358 (1993).

SCAN-COORDS
================================================================================
                                        WARNINGS
                       Please study these warnings very carefully!
================================================================================
Now building the actual basis set

WARNING: Gradients are needed
  ===> : forcing at least TightSCF

WARNING: Geometry Optimization
  ===> : Switching off AutoStart
         For restart on a previous wavefunction, please use MOREAD


INFO   : the flag for use of LIBINT has been found!

================================================================================
                                       INPUT FILE
================================================================================
NAME = piceno.inp
|  1> ! BP cc-pVTZ cc-pVTZ/J normalSCF Split-RI-J
|  2> 
|  3> #%basis
|  4> # NewGTO Pt "def2-QZVP" end
|  5> # NewAuxGTO Pt "def2-QZVP/J" end
|  6> #end
|  7> 
|  8> 
|  9> 
| 10> %method 
| 11>  frozencore FC_ELECTRONS
| 12>  method dft
| 13>  runtyp opt
| 14> end
| 15> 
| 16> %scf
| 17>  hftyp uhf
| 18> end
| 19> 
| 20> 
| 21> %coords
| 22>  CTyp   xyz 
| 23>  Charge 0 
| 24>  Mult   1
| 25>  Units	Angs
| 26>  coords
| 27> C         -4.23708       -0.05019        1.93381
| 28> C         -3.59413        0.94015        2.66812
| 29> C         -3.55736       -0.71588        0.91881
| 30> C         -2.22080       -0.39491        0.62776
| 31> C         -1.54435        0.61224        1.36394
| 32> C         -2.26549        1.27478        2.39508
| 33> C         -1.56577       -1.07620       -0.39198
| 34> C         -0.17713        0.91630        1.04085
| 35> C          0.48212        0.20617       -0.01103
| 36> C         -0.24686       -0.78848       -0.70952
| 37> C          0.54270        1.90483        1.73722
| 38> C          1.86011        2.19939        1.42756
| 39> C          2.54677        1.52533        0.40057
| 40> C          1.85280        0.51268       -0.33318
| 41> C          2.54840       -0.16349       -1.36658
| 42> C          3.91376        1.83263        0.08098
| 43> C          4.55608        1.12036       -0.96518
| 44> C          3.86746        0.13864       -1.66909
| 45> C          4.66835        2.82514        0.76523
| 46> C          5.99534        3.08429        0.41406
| 47> C          6.60431        2.37387       -0.61453
| 48> C          5.89152        1.39683       -1.30221
| 49> H         -5.26670       -0.30312        2.15208
| 50> H         -4.12789        1.45494        3.45686
| 51> H         -4.07411       -1.48512        0.35656
| 52> H         -1.83453        2.04922        3.00299
| 53> H         -2.08300       -1.84571       -0.95429
| 54> H          0.17421       -1.36555       -1.51054
| 55> H          0.10898        2.47564        2.53762
| 56> H          2.32077        2.97018        2.01773
| 57> H          2.10024       -0.93490       -1.96326
| 58> H          4.35846       -0.40545       -2.46840
| 59> H          4.26459        3.41294        1.56935
| 60> H          6.55471        3.84350        0.94584
| 61> H          7.63295        2.58115       -0.88006
| 62> H          6.38203        0.85280       -2.10122
| 63>  end 
| 64> end
| 65> 
| 66> 
| 67> 
| 68>                          ****END OF INPUT****
================================================================================

                       *****************************
                       * Geometry Optimization Run *
                       *****************************

Geometry optimization settings:
Update method            Update   .... BFGS
Choice of coordinates    CoordSys .... Redundant Internals
Initial Hessian          InHess   .... Almoef's Model

Convergence Tolerances:
Energy Change            TolE     ....  5.0000e-06 Eh
Max. Gradient            TolMAXG  ....  3.0000e-04 Eh/bohr
RMS Gradient             TolRMSG  ....  1.0000e-04 Eh/bohr
Max. Displacement        TolMAXD  ....  4.0000e-03 bohr
RMS Displacement         TolRMSD  ....  2.0000e-03 bohr

------------------------------------------------------------------------------
                        ORCA OPTIMIZATION COORDINATE SETUP
------------------------------------------------------------------------------

The optimization will be done in new redundant internal coordinates
Making redundant internal coordinates   ...  (new redundants) done
Evaluating the initial hessian          ...  (Almloef) done
Evaluating the coordinates              ...  done
Calculating the B-matrix                .... done
Calculating the G-matrix                .... done
Diagonalizing the G-matrix              .... done
Small eigenvalue found = 9.208e-03
Small eigenvalue found = 2.526e-02
The first mode is                       ....  108
The number of degrees of freedom        ....  102

    -----------------------------------------------------------------
                    Redundant Internal Coordinates


    -----------------------------------------------------------------
         Definition                    Initial Value    Approx d2E/dq
    -----------------------------------------------------------------
      1. B(C   1,C   0)                  1.3905         0.623750   
      2. B(C   2,C   0)                  1.3912         0.622089   
      3. B(C   3,C   2)                  1.4050         0.591222   
      4. B(C   4,C   3)                  1.4191         0.561413   
      5. B(C   5,C   1)                  1.3971         0.608772   
      6. B(C   5,C   4)                  1.4221         0.555380   
      7. B(C   6,C   3)                  1.3904         0.623980   
      8. B(C   7,C   4)                  1.4374         0.524939   
      9. B(C   8,C   7)                  1.4302         0.539103   
     10. B(C   9,C   8)                  1.4173         0.565256   
     11. B(C   9,C   6)                  1.3868         0.632248   
     12. B(C  10,C   7)                  1.4072         0.586489   
     13. B(C  11,C  10)                  1.3850         0.636380   
     14. B(C  12,C  11)                  1.4073         0.586267   
     15. B(C  13,C   8)                  1.4410         0.518042   
     16. B(C  13,C  12)                  1.4302         0.539036   
     17. B(C  14,C  13)                  1.4174         0.564998   
     18. B(C  15,C  12)                  1.4371         0.525541   
     19. B(C  16,C  15)                  1.4193         0.561080   
     20. B(C  17,C  16)                  1.3905         0.623674   
     21. B(C  17,C  14)                  1.3866         0.632604   
     22. B(C  18,C  15)                  1.4222         0.555073   
     23. B(C  19,C  18)                  1.3969         0.609117   
     24. B(C  20,C  19)                  1.3905         0.623610   
     25. B(C  21,C  20)                  1.3913         0.621931   
     26. B(C  21,C  16)                  1.4048         0.591763   
     27. B(H  22,C   0)                  1.0825         0.370206   
     28. B(H  23,C   1)                  1.0826         0.370026   
     29. B(H  24,C   2)                  1.0839         0.368232   
     30. B(H  25,C   5)                  1.0747         0.380882   
     31. B(H  26,C   6)                  1.0844         0.367621   
     32. B(H  27,C   9)                  1.0733         0.382903   
     33. B(H  28,C  10)                  1.0745         0.381182   
     34. B(H  29,C  11)                  1.0745         0.381151   
     35. B(H  30,C  14)                  1.0733         0.382900   
     36. B(H  31,C  17)                  1.0844         0.367530   
     37. B(H  32,C  18)                  1.0748         0.380816   
     38. B(H  33,C  19)                  1.0826         0.369985   
     39. B(H  34,C  20)                  1.0824         0.370307   
     40. B(H  35,C  21)                  1.0840         0.368169   
     41. A(C   1,C   0,H  22)          119.9843         0.354930   
     42. A(C   2,C   0,H  22)          120.0031         0.354770   
     43. A(C   1,C   0,C   2)          120.0126         0.434800   
     44. A(C   0,C   1,C   5)          120.4734         0.433111   
     45. A(C   0,C   1,H  23)          119.7000         0.354901   
     46. A(C   5,C   1,H  23)          119.8267         0.353442   
     47. A(C   0,C   2,H  24)          119.0197         0.354448   
     48. A(C   0,C   2,C   3)          120.4378         0.430634   
     49. A(C   3,C   2,H  24)          120.5425         0.351408   
     50. A(C   2,C   3,C   6)          119.2193         0.430869   
     51. A(C   4,C   3,C   6)          120.2430         0.426889   
     52. A(C   2,C   3,C   4)          120.5377         0.422790   
     53. A(C   3,C   4,C   5)          117.7155         0.418098   
     54. A(C   3,C   4,C   7)          119.1382         0.413926   
     55. A(C   5,C   4,C   7)          123.1463         0.413133   
     56. A(C   1,C   5,H  25)          116.3212         0.355178   
     57. A(C   4,C   5,H  25)          122.8557         0.349705   
     58. A(C   1,C   5,C   4)          120.8230         0.424186   
     59. A(C   9,C   6,H  26)          118.8251         0.355323   
     60. A(C   3,C   6,H  26)          120.2212         0.354531   
     61. A(C   3,C   6,C   9)          120.9537         0.436100   
     62. A(C   4,C   7,C   8)          119.9168         0.410958   
     63. A(C   8,C   7,C  10)          118.4880         0.419139   
     64. A(C   4,C   7,C  10)          121.5952         0.417156   
     65. A(C   7,C   8,C   9)          118.2855         0.416395   
     66. A(C   9,C   8,C  13)          121.8944         0.413456   
     67. A(C   7,C   8,C  13)          119.8201         0.409995   
     68. A(C   8,C   9,H  27)          122.9134         0.351061   
     69. A(C   6,C   9,H  27)          115.6238         0.357790   
     70. A(C   6,C   9,C   8)          121.4628         0.428421   
     71. A(C   7,C  10,H  28)          122.3650         0.352988   
     72. A(C   7,C  10,C  11)          121.6899         0.431770   
     73. A(C  11,C  10,H  28)          115.9451         0.357912   
     74. A(C  10,C  11,H  29)          115.9474         0.357907   
     75. A(C  12,C  11,H  29)          122.3575         0.352961   
     76. A(C  10,C  11,C  12)          121.6951         0.431741   
     77. A(C  13,C  12,C  15)          119.9254         0.411032   
     78. A(C  11,C  12,C  15)          121.5998         0.417213   
     79. A(C  11,C  12,C  13)          118.4748         0.419102   
     80. A(C  12,C  13,C  14)          118.2749         0.416352   
     81. A(C   8,C  13,C  14)          121.8930         0.413422   
     82. A(C   8,C  13,C  12)          119.8321         0.409986   
     83. A(C  13,C  14,C  17)          121.4643         0.428429   
     84. A(C  17,C  14,H  30)          115.6284         0.357823   
     85. A(C  13,C  14,H  30)          122.9073         0.351034   
     86. A(C  12,C  15,C  18)          123.1565         0.413176   
     87. A(C  12,C  15,C  16)          119.1502         0.413967   
     88. A(C  16,C  15,C  18)          117.6933         0.418013   
     89. A(C  15,C  16,C  17)          120.2212         0.426806   
     90. A(C  17,C  16,C  21)          119.2280         0.430901   
     91. A(C  15,C  16,C  21)          120.5508         0.422814   
     92. A(C  14,C  17,C  16)          120.9641         0.436105   
     93. A(C  16,C  17,H  31)          120.2074         0.354486   
     94. A(C  14,C  17,H  31)          118.8285         0.355342   
     95. A(C  19,C  18,H  32)          116.3266         0.355202   
     96. A(C  15,C  18,H  32)          122.8407         0.349663   
     97. A(C  15,C  18,C  19)          120.8327         0.424187   
     98. A(C  20,C  19,H  33)          119.6926         0.354881   
     99. A(C  18,C  19,H  33)          119.8300         0.353469   
    100. A(C  18,C  19,C  20)          120.4774         0.433138   
    101. A(C  19,C  20,H  34)          119.9883         0.354933   
    102. A(C  19,C  20,C  21)          120.0035         0.434763   
    103. A(C  21,C  20,H  34)          120.0082         0.354771   
    104. A(C  16,C  21,C  20)          120.4423         0.430685   
    105. A(C  20,C  21,H  35)          119.0106         0.354423   
    106. A(C  16,C  21,H  35)          120.5471         0.351452   
    107. D(C   5,C   1,C   0,C   2)     -0.0004         0.026942   
    108. D(C   5,C   1,C   0,H  22)   -179.9999         0.026942   
    109. D(H  23,C   1,C   0,C   2)   -179.9994         0.026942   
    110. D(H  23,C   1,C   0,H  22)      0.0010         0.026942   
    111. D(H  24,C   2,C   0,C   1)   -179.9995         0.026790   
    112. D(C   3,C   2,C   0,H  22)    179.9996         0.026790   
    113. D(C   3,C   2,C   0,C   1)      0.0001         0.026790   
    114. D(H  24,C   2,C   0,H  22)      0.0000         0.026790   
    115. D(C   4,C   3,C   2,H  24)    179.9994         0.024060   
    116. D(C   6,C   3,C   2,H  24)     -0.0004         0.024060   
    117. D(C   4,C   3,C   2,C   0)     -0.0002         0.024060   
    118. D(C   6,C   3,C   2,C   0)   -179.9999         0.024060   
    119. D(C   7,C   4,C   3,C   2)    179.9993         0.021594   
    120. D(C   5,C   4,C   3,C   2)      0.0005         0.021594   
    121. D(C   5,C   4,C   3,C   6)   -179.9997         0.021594   
    122. D(C   7,C   4,C   3,C   6)     -0.0009         0.021594   
    123. D(H  25,C   5,C   4,C   7)      0.0011         0.021115   
    124. D(C   1,C   5,C   4,C   7)   -179.9995         0.021115   
    125. D(H  25,C   5,C   1,H  23)     -0.0008         0.025590   
    126. D(H  25,C   5,C   1,C   0)   -179.9998         0.025590   
    127. D(C   4,C   5,C   1,H  23)    179.9998         0.025590   
    128. D(H  25,C   5,C   4,C   3)    179.9998         0.021115   
    129. D(C   4,C   5,C   1,C   0)      0.0007         0.025590   
    130. D(C   1,C   5,C   4,C   3)     -0.0008         0.021115   
    131. D(H  26,C   6,C   3,C   4)   -179.9993         0.026963   
    132. D(H  26,C   6,C   3,C   2)      0.0005         0.026963   
    133. D(C   9,C   6,C   3,C   4)      0.0005         0.026963   
    134. D(C   9,C   6,C   3,C   2)   -179.9997         0.026963   
    135. D(C  10,C   7,C   4,C   3)   -179.9998         0.018800   
    136. D(C   8,C   7,C   4,C   5)    179.9995         0.018800   
    137. D(C   8,C   7,C   4,C   3)      0.0008         0.018800   
    138. D(C  10,C   7,C   4,C   5)     -0.0011         0.018800   
    139. D(C  13,C   8,C   7,C  10)      0.0006         0.019857   
    140. D(C  13,C   8,C   7,C   4)    180.0000         0.019857   
    141. D(C   9,C   8,C   7,C  10)   -179.9997         0.019857   
    142. D(C   9,C   8,C   7,C   4)     -0.0003         0.019857   
    143. D(H  27,C   9,C   8,C  13)     -0.0003         0.021903   
    144. D(C   6,C   9,C   8,C  13)    179.9996         0.021903   
    145. D(C   6,C   9,C   8,C   7)     -0.0001         0.021903   
    146. D(H  27,C   9,C   6,H  26)     -0.0003         0.027729   
    147. D(H  27,C   9,C   6,C   3)    179.9999         0.027729   
    148. D(H  27,C   9,C   8,C   7)   -180.0000         0.021903   
    149. D(C   8,C   9,C   6,H  26)    179.9998         0.027729   
    150. D(C   8,C   9,C   6,C   3)     -0.0000         0.027729   
    151. D(H  28,C  10,C   7,C   8)    179.9998         0.023657   
    152. D(H  28,C  10,C   7,C   4)      0.0004         0.023657   
    153. D(C  11,C  10,C   7,C   8)     -0.0009         0.023657   
    154. D(C  11,C  10,C   7,C   4)    179.9997         0.023657   
    155. D(H  29,C  11,C  10,H  28)     -0.0004         0.028116   
    156. D(H  29,C  11,C  10,C   7)   -179.9997         0.028116   
    157. D(C  12,C  11,C  10,H  28)    179.9998         0.028116   
    158. D(C  12,C  11,C  10,C   7)      0.0004         0.028116   
    159. D(C  15,C  12,C  11,H  29)     -0.0001         0.023638   
    160. D(C  15,C  12,C  11,C  10)    179.9998         0.023638   
    161. D(C  13,C  12,C  11,H  29)   -179.9995         0.023638   
    162. D(C  13,C  12,C  11,C  10)      0.0004         0.023638   
    163. D(C   8,C  13,C  12,C  15)    179.9999         0.019851   
    164. D(C   8,C  13,C  12,C  11)     -0.0007         0.019851   
    165. D(C  14,C  13,C   8,C   9)      0.0002         0.018299   
    166. D(C  14,C  13,C   8,C   7)    179.9998         0.018299   
    167. D(C  12,C  13,C   8,C   9)   -179.9995         0.018299   
    168. D(C  14,C  13,C  12,C  11)    179.9997         0.019851   
    169. D(C  12,C  13,C   8,C   7)      0.0002         0.018299   
    170. D(C  14,C  13,C  12,C  15)      0.0002         0.019851   
    171. D(H  30,C  14,C  13,C  12)    179.9995         0.021882   
    172. D(H  30,C  14,C  13,C   8)     -0.0002         0.021882   
    173. D(C  17,C  14,C  13,C  12)      0.0002         0.021882   
    174. D(C  17,C  14,C  13,C   8)   -179.9995         0.021882   
    175. D(C  18,C  15,C  12,C  13)    179.9997         0.018845   
    176. D(C  18,C  15,C  12,C  11)      0.0003         0.018845   
    177. D(C  16,C  15,C  12,C  13)     -0.0007         0.018845   
    178. D(C  16,C  15,C  12,C  11)    179.9999         0.018845   
    179. D(C  21,C  16,C  15,C  18)     -0.0000         0.021567   
    180. D(C  21,C  16,C  15,C  12)   -179.9997         0.021567   
    181. D(C  17,C  16,C  15,C  18)   -179.9996         0.021567   
    182. D(C  17,C  16,C  15,C  12)      0.0007         0.021567   
    183. D(H  31,C  17,C  16,C  21)      0.0001         0.026935   
    184. D(H  31,C  17,C  16,C  15)    179.9997         0.026935   
    185. D(C  14,C  17,C  16,C  21)   -180.0000         0.026935   
    186. D(C  14,C  17,C  16,C  15)     -0.0004         0.026935   
    187. D(H  31,C  17,C  14,H  30)      0.0005         0.027762   
    188. D(H  31,C  17,C  14,C  13)    179.9998         0.027762   
    189. D(C  16,C  17,C  14,H  30)   -179.9994         0.027762   
    190. D(C  16,C  17,C  14,C  13)     -0.0001         0.027762   
    191. D(H  32,C  18,C  15,C  16)   -179.9997         0.021091   
    192. D(H  32,C  18,C  15,C  12)     -0.0001         0.021091   
    193. D(C  19,C  18,C  15,C  16)     -0.0004         0.021091   
    194. D(C  19,C  18,C  15,C  12)    179.9992         0.021091   
    195. D(H  33,C  19,C  18,H  32)     -0.0005         0.025620   
    196. D(H  33,C  19,C  18,C  15)   -179.9999         0.025620   
    197. D(C  20,C  19,C  18,H  32)    179.9999         0.025620   
    198. D(C  20,C  19,C  18,C  15)      0.0005         0.025620   
    199. D(H  34,C  20,C  19,H  33)      0.0003         0.026929   
    200. D(H  34,C  20,C  19,C  18)    179.9999         0.026929   
    201. D(C  21,C  20,C  19,H  33)   -179.9998         0.026929   
    202. D(C  21,C  20,C  19,C  18)     -0.0002         0.026929   
    203. D(H  35,C  21,C  20,H  34)      0.0001         0.026775   
    204. D(H  35,C  21,C  20,C  19)   -179.9999         0.026775   
    205. D(C  16,C  21,C  20,H  34)    179.9997         0.026775   
    206. D(C  16,C  21,C  20,C  19)     -0.0002         0.026775   
    207. D(H  35,C  21,C  16,C  17)     -0.0004         0.024106   
    208. D(H  35,C  21,C  16,C  15)    180.0000         0.024106   
    209. D(C  20,C  21,C  16,C  17)    180.0000         0.024106   
    210. D(C  20,C  21,C  16,C  15)      0.0003         0.024106   
    -----------------------------------------------------------------

Number of atoms                         .... 36
Number of degrees of freedom            .... 210

         *************************************************************
         *                GEOMETRY OPTIMIZATION CYCLE   1            *
         *************************************************************
---------------------------------
CARTESIAN COORDINATES (ANGSTROEM)
---------------------------------
  C     -4.237080   -0.050190    1.933810
  C     -3.594130    0.940150    2.668120
  C     -3.557360   -0.715880    0.918810
  C     -2.220800   -0.394910    0.627760
  C     -1.544350    0.612240    1.363940
  C     -2.265490    1.274780    2.395080
  C     -1.565770   -1.076200   -0.391980
  C     -0.177130    0.916300    1.040850
  C      0.482120    0.206170   -0.011030
  C     -0.246860   -0.788480   -0.709520
  C      0.542700    1.904830    1.737220
  C      1.860110    2.199390    1.427560
  C      2.546770    1.525330    0.400570
  C      1.852800    0.512680   -0.333180
  C      2.548400   -0.163490   -1.366580
  C      3.913760    1.832630    0.080980
  C      4.556080    1.120360   -0.965180
  C      3.867460    0.138640   -1.669090
  C      4.668350    2.825140    0.765230
  C      5.995340    3.084290    0.414060
  C      6.604310    2.373870   -0.614530
  C      5.891520    1.396830   -1.302210
  H     -5.266700   -0.303120    2.152080
  H     -4.127890    1.454940    3.456860
  H     -4.074110   -1.485120    0.356560
  H     -1.834530    2.049220    3.002990
  H     -2.083000   -1.845710   -0.954290
  H      0.174210   -1.365550   -1.510540
  H      0.108980    2.475640    2.537620
  H      2.320770    2.970180    2.017730
  H      2.100240   -0.934900   -1.963260
  H      4.358460   -0.405450   -2.468400
  H      4.264590    3.412940    1.569350
  H      6.554710    3.843500    0.945840
  H      7.632950    2.581150   -0.880060
  H      6.382030    0.852800   -2.101220

----------------------------
CARTESIAN COORDINATES (A.U.)
----------------------------
  NO LB      ZA    FRAG    MASS        X           Y           Z
   0 C     6.0000    0    12.011   -8.006921   -0.094845    3.654371
   1 C     6.0000    0    12.011   -6.791921    1.776626    5.042016
   2 C     6.0000    0    12.011   -6.722436   -1.352817    1.736299
   3 C     6.0000    0    12.011   -4.196704   -0.746272    1.186294
   4 C     6.0000    0    12.011   -2.918399    1.156966    2.577473
   5 C     6.0000    0    12.011   -4.281156    2.408985    4.526045
   6 C     6.0000    0    12.011   -2.958876   -2.033723   -0.740735
   7 C     6.0000    0    12.011   -0.334727    1.731556    1.966921
   8 C     6.0000    0    12.011    0.911075    0.389605   -0.020844
   9 C     6.0000    0    12.011   -0.466498   -1.490011   -1.340798
  10 C     6.0000    0    12.011    1.025554    3.599607    3.282870
  11 C     6.0000    0    12.011    3.515098    4.156245    2.697697
  12 C     6.0000    0    12.011    4.812698    2.882456    0.756968
  13 C     6.0000    0    12.011    3.501285    0.968825   -0.629619
  14 C     6.0000    0    12.011    4.815778   -0.308951   -2.582462
  15 C     6.0000    0    12.011    7.395935    3.463169    0.153030
  16 C     6.0000    0    12.011    8.609743    2.117174   -1.823926
  17 C     6.0000    0    12.011    7.308440    0.261992   -3.154123
  18 C     6.0000    0    12.011    8.821903    5.338741    1.446075
  19 C     6.0000    0    12.011   11.329551    5.828463    0.782460
  20 C     6.0000    0    12.011   12.480337    4.485964   -1.161293
  21 C     6.0000    0    12.011   11.133359    2.639626   -2.460820
  22 H     1.0000    0     1.008   -9.952621   -0.572814    4.066842
  23 H     1.0000    0     1.008   -7.800582    2.749438    6.532519
  24 H     1.0000    0     1.008   -7.698952   -2.806470    0.673801
  25 H     1.0000    0     1.008   -3.466759    3.872465    5.674829
  26 H     1.0000    0     1.008   -3.936300   -3.487886   -1.803347
  27 H     1.0000    0     1.008    0.329209   -2.580516   -2.854507
  28 H     1.0000    0     1.008    0.205942    4.678282    4.795407
  29 H     1.0000    0     1.008    4.385620    5.612827    3.812957
  30 H     1.0000    0     1.008    3.968878   -1.766705   -3.710024
  31 H     1.0000    0     1.008    8.236296   -0.766189   -4.664600
  32 H     1.0000    0     1.008    8.058907    6.449522    2.965642
  33 H     1.0000    0     1.008   12.386607    7.263162    1.787379
  34 H     1.0000    0     1.008   14.424185    4.877667   -1.663072
  35 H     1.0000    0     1.008   12.060289    1.611558   -3.970730

--------------------------------
INTERNAL COORDINATES (ANGSTROEM)
--------------------------------
 C      0   0   0   0.000000     0.000     0.000
 C      1   0   0   1.390456     0.000     0.000
 C      1   2   0   1.391182   120.013     0.000
 C      3   1   2   1.405035   120.438     0.000
 C      4   3   1   1.419118   120.538     0.000
 C      2   1   3   1.397073   120.473     0.000
 C      4   3   1   1.390356   119.219   180.000
 C      5   4   3   1.437404   119.138   179.999
 C      8   5   4   1.430156   119.917     0.000
 C      7   4   3   1.386773   120.954   180.000
 C      8   5   4   1.407223   121.595   180.000
 C     11   8   5   1.385000   121.690   180.000
 C     12  11   8   1.407326   121.695     0.000
 C     13  12  11   1.430190   118.475     0.000
 C     14  13  12   1.417385   118.275   180.000
 C     13  12  11   1.437092   121.600   180.000
 C     16  13  12   1.419279   119.150   180.000
 C     15  14  13   1.386620   121.464     0.000
 C     16  13  12   1.422210   123.156     0.000
 C     19  16  13   1.396919   120.833   179.999
 C     20  19  16   1.390517   120.477     0.000
 C     21  20  19   1.391251   120.003     0.000
 H      1   2   3   1.082466   119.984   180.000
 H      2   1   3   1.082598   119.700   180.001
 H      3   1   2   1.083921   119.020   180.000
 H      6   2   1   1.074727   116.321   180.000
 H      7   4   3   1.084373   120.221     0.000
 H     10   7   4   1.073286   115.624   180.000
 H     11   8   5   1.074513   122.365     0.000
 H     12  11   8   1.074535   115.947   180.000
 H     15  14  13   1.073288   122.907   179.999
 H     18  15  14   1.084441   118.829   180.000
 H     19  16  13   1.074774   122.841     0.000
 H     20  19  16   1.082629   119.830   180.000
 H     21  20  19   1.082392   119.988   180.000
 H     22  21  20   1.083968   119.011   180.000

---------------------------
INTERNAL COORDINATES (A.U.)
---------------------------
 C      0   0   0   0.000000     0.000     0.000
 C      1   0   0   2.627582     0.000     0.000
 C      1   2   0   2.628953   120.013     0.000
 C      3   1   2   2.655132   120.438     0.000
 C      4   3   1   2.681745   120.538     0.000
 C      2   1   3   2.640085   120.473     0.000
 C      4   3   1   2.627392   119.219   180.000
 C      5   4   3   2.716300   119.138   179.999
 C      8   5   4   2.702604   119.917     0.000
 C      7   4   3   2.620620   120.954   180.000
 C      8   5   4   2.659267   121.595   180.000
 C     11   8   5   2.617270   121.690   180.000
 C     12  11   8   2.659461   121.695     0.000
 C     13  12  11   2.702667   118.475     0.000
 C     14  13  12   2.678470   118.275   180.000
 C     13  12  11   2.715710   121.600   180.000
 C     16  13  12   2.682050   119.150   180.000
 C     15  14  13   2.620331   121.464     0.000
 C     16  13  12   2.687587   123.156     0.000
 C     19  16  13   2.639794   120.833   179.999
 C     20  19  16   2.627697   120.477     0.000
 C     21  20  19   2.629084   120.003     0.000
 H      1   2   3   2.045564   119.984   180.000
 H      2   1   3   2.045814   119.700   180.001
 H      3   1   2   2.048315   119.020   180.000
 H      6   2   1   2.030940   116.321   180.000
 H      7   4   3   2.049168   120.221     0.000
 H     10   7   4   2.028217   115.624   180.000
 H     11   8   5   2.030534   122.365     0.000
 H     12  11   8   2.030577   115.947   180.000
 H     15  14  13   2.028221   122.907   179.999
 H     18  15  14   2.049296   118.829   180.000
 H     19  16  13   2.031029   122.841     0.000
 H     20  19  16   2.045871   119.830   180.000
 H     21  20  19   2.045424   119.988   180.000
 H     22  21  20   2.048402   119.011   180.000

---------------------
BASIS SET INFORMATION
---------------------
There are 2 groups of distinct atoms

 Group   1 Type C   : 18s5p2d1f contracted to 4s3p2d1f pattern {8811/311/11/1}
 Group   2 Type H   : 5s2p1d contracted to 3s2p1d pattern {311/11/1}

Atom   0C    basis set group =>   1
Atom   1C    basis set group =>   1
Atom   2C    basis set group =>   1
Atom   3C    basis set group =>   1
Atom   4C    basis set group =>   1
Atom   5C    basis set group =>   1
Atom   6C    basis set group =>   1
Atom   7C    basis set group =>   1
Atom   8C    basis set group =>   1
Atom   9C    basis set group =>   1
Atom  10C    basis set group =>   1
Atom  11C    basis set group =>   1
Atom  12C    basis set group =>   1
Atom  13C    basis set group =>   1
Atom  14C    basis set group =>   1
Atom  15C    basis set group =>   1
Atom  16C    basis set group =>   1
Atom  17C    basis set group =>   1
Atom  18C    basis set group =>   1
Atom  19C    basis set group =>   1
Atom  20C    basis set group =>   1
Atom  21C    basis set group =>   1
Atom  22H    basis set group =>   2
Atom  23H    basis set group =>   2
Atom  24H    basis set group =>   2
Atom  25H    basis set group =>   2
Atom  26H    basis set group =>   2
Atom  27H    basis set group =>   2
Atom  28H    basis set group =>   2
Atom  29H    basis set group =>   2
Atom  30H    basis set group =>   2
Atom  31H    basis set group =>   2
Atom  32H    basis set group =>   2
Atom  33H    basis set group =>   2
Atom  34H    basis set group =>   2
Atom  35H    basis set group =>   2
-------------------------------
AUXILIARY BASIS SET INFORMATION
-------------------------------
There are 2 groups of distinct atoms

 Group   1 Type C   : 12s5p4d2f1g contracted to 6s4p3d1f1g pattern {711111/2111/211/2/1}
 Group   2 Type H   : 5s2p1d contracted to 3s1p1d pattern {311/2/1}

Atom   0C    basis set group =>   1
Atom   1C    basis set group =>   1
Atom   2C    basis set group =>   1
Atom   3C    basis set group =>   1
Atom   4C    basis set group =>   1
Atom   5C    basis set group =>   1
Atom   6C    basis set group =>   1
Atom   7C    basis set group =>   1
Atom   8C    basis set group =>   1
Atom   9C    basis set group =>   1
Atom  10C    basis set group =>   1
Atom  11C    basis set group =>   1
Atom  12C    basis set group =>   1
Atom  13C    basis set group =>   1
Atom  14C    basis set group =>   1
Atom  15C    basis set group =>   1
Atom  16C    basis set group =>   1
Atom  17C    basis set group =>   1
Atom  18C    basis set group =>   1
Atom  19C    basis set group =>   1
Atom  20C    basis set group =>   1
Atom  21C    basis set group =>   1
Atom  22H    basis set group =>   2
Atom  23H    basis set group =>   2
Atom  24H    basis set group =>   2
Atom  25H    basis set group =>   2
Atom  26H    basis set group =>   2
Atom  27H    basis set group =>   2
Atom  28H    basis set group =>   2
Atom  29H    basis set group =>   2
Atom  30H    basis set group =>   2
Atom  31H    basis set group =>   2
Atom  32H    basis set group =>   2
Atom  33H    basis set group =>   2
Atom  34H    basis set group =>   2
Atom  35H    basis set group =>   2
------------------------------------------------------------------------------
                           ORCA GTO INTEGRAL CALCULATION
                           -- RI-GTO INTEGRALS CHOSEN --
------------------------------------------------------------------------------

                         BASIS SET STATISTICS AND STARTUP INFO

Gaussian basis set:
 # of primitive gaussian shells          ...  684
 # of primitive gaussian functions       ... 1324
 # of contracted shells                  ...  304
 # of contracted basis functions         ...  856
 Highest angular momentum                ...    3
 Maximum contraction depth               ...    8
Auxiliary gaussian basis set:
 # of primitive gaussian shells          ...  640
 # of primitive gaussian functions       ... 1764
 # of contracted shells                  ...  400
 # of contracted aux-basis functions     ... 1232
 Highest angular momentum                ...    4
 Maximum contraction depth               ...    7
Ratio of auxiliary to basis functions    ...  1.44
Integral package used                  ... LIBINT
 One Electron integrals                  ... done
 Ordering auxiliary basis shells         ... done
 Integral threshhold             Thresh  ...  2.500e-11
 Primitive cut-off               TCut    ...  2.500e-12
 Pre-screening matrix                    ... done
 Shell pair data                         ... 
 Ordering of the shell pairs             ... done (   0.016 sec) 32313 of 46360 pairs
 Determination of significant pairs      ... done (   0.000 sec)
 Creation of shell pair data             ... done (   0.016 sec)
 Storage of shell pair data              ... done (   0.009 sec)
 Shell pair data done in (   0.041 sec)
 Computing two index integrals           ... done
 Choleksy decomposition of the V-matrix  ... done


Timings:
 Total evaluation time                   ...   2.348 sec (  0.039 min)
 One electron matrix time                ...   0.533 sec (  0.009 min) = 22.7%
 Schwartz matrix evaluation time         ...   1.521 sec (  0.025 min) = 64.8%
 Two index repulsion integral time       ...   0.055 sec (  0.001 min) =  2.3%
 Cholesky decomposition of V             ...   0.072 sec (  0.001 min) =  3.1%
 Three index repulsion integral time     ...   0.000 sec (  0.000 min) =  0.0%

-------------------------------------------------------------------------------
                                 ORCA SCF
-------------------------------------------------------------------------------

------------
SCF SETTINGS
------------
Hamiltonian:
 Density Functional     Method          .... DFT(GTOs)
 Exchange Functional    Exchange        .... B88
   X-Alpha parameter    XAlpha          ....  0.666667
   Becke's b parameter  XBeta           ....  0.004200
 Correlation Functional Correlation     .... P86
 LDA part of GGA corr.  LDAOpt          .... PW91-LDA
 Gradients option       PostSCFGGA      .... off
 RI-approximation to the Coulomb term is turned on
   Number of auxiliary basis functions  .... 1232


General Settings:
 Integral files         IntName         .... piceno
 Hartree-Fock type      HFTyp           .... UHF
 Total Charge           Charge          ....    0
 Multiplicity           Mult            ....    1
 Number of Electrons    NEL             ....  146
 Basis Dimension        Dim             ....  856
 Nuclear Repulsion      ENuc            ....   1538.3915560503 Eh

Convergence Acceleration:
 DIIS                   CNVDIIS         .... on
   Start iteration      DIISMaxIt       ....    12
   Startup error        DIISStart       ....  0.200000
   # of expansion vecs  DIISMaxEq       ....     5
   Bias factor          DIISBfac        ....   1.050
   Max. coefficient     DIISMaxC        ....  10.000
 Newton-Raphson         CNVNR           .... off
 SOSCF                  CNVSOSCF        .... off
 Level Shifting         CNVShift        .... on
   Level shift para.    LevelShift      ....    0.2500
   Turn off err/grad.   ShiftErr        ....    0.0010
 Zerner damping         CNVZerner       .... off
 Static damping         CNVDamp         .... on
   Fraction old density DampFac         ....    0.7000
   Max. Damping (<1)    DampMax         ....    0.9800
   Min. Damping (>=0)   DampMin         ....    0.0000
   Turn off err/grad.   DampErr         ....    0.1000
 Fernandez-Rico         CNVRico         .... off

SCF Procedure:
 Maximum # iterations   MaxIter         ....   125
 SCF integral mode      SCFMode         .... Direct
   Integral package                     .... LIBINT
 Reset frequeny         DirectResetFreq ....    20
 Integral Threshold     Thresh          ....  2.500e-11 Eh
 Primitive CutOff       TCut            ....  2.500e-12 Eh

Convergence Tolerance:
 Convergence Check Mode ConvCheckMode   .... Total+1el-Energy
 Energy Change          TolE            ....  1.000e-08 Eh
 1-El. energy change                    ....  1.000e-05 Eh
 DIIS Error             TolErr          ....  5.000e-07


Diagonalization of the overlap matrix:
Smallest eigenvalue                        ... 7.896e-06
Time for diagonalization                   ...    0.380 sec
Time for construction of square roots      ...    0.230 sec
Total time needed                          ...    0.613 sec

-------------------
DFT GRID GENERATION
-------------------

General Integration Accuracy     IntAcc      ...  4.340
Radial Grid Type                 RadialGrid  ... Gauss-Chebyshev
Angular Grid (max. acc.)         AngularGrid ... Lebedev-110
Angular grid pruning method      GridPruning ... 3 (G Style)
Weight generation scheme         WeightScheme... Becke
Basis function cutoff            BFCut       ...    1.0000e-11
Integration weight cutoff        WCut        ...    1.0000e-14
Grids for H and He will be reduced by one unit

# of grid points (after initial pruning)     ...  47548 (   0.0 sec)
# of grid points (after weights+screening)   ...  42607 (   1.2 sec)
nearest neighbour list constructed           ...    0.0 sec
Grid point re-assignment to atoms done       ...    0.0 sec
Grid point division into batches done        ...    0.0 sec
Reduced shell lists constructed in    3.1 sec

Total number of grid points                  ...    42607
Total number of batches                      ...      686
Average number of points per batch           ...       62
Average number of grid points per atom       ...     1184
Average number of shells per batch           ...   143.53 (47.21%)
Average number of basis functions per batch  ...   375.54 (43.87%)
Average number of large shells per batch     ...    95.13 (66.28%)
Average number of large basis fcns per batch ...   254.05 (67.65%)
Maximum spatial batch extension              ...  19.80, 24.10, 25.48 au
Average spatial batch extension              ...   3.29,  4.18,  4.14 au

Time for grid setup =    4.297 sec

------------------------------
INITIAL GUESS: MODEL POTENTIAL
------------------------------
Loading Hartree-Fock densities                     ... done
Calculating cut-offs                               ... done
Setting up the integral package                    ... done
Initializing the effective Hamiltonian             ... done
Starting the Coulomb interaction                   ... done (   3.5 sec)
Reading the grid                                   ... done
Mapping shells                                     ... done
Starting the XC term evaluation                    ... done (   8.7 sec)
  promolecular density results
     # of electrons  =    146.001721791
     EX              =   -117.362330130
     EC              =     -5.338675398
     EX+EC           =   -122.701005528
Transforming the Hamiltonian                       ... done (   0.2 sec)
Diagonalizing the Hamiltonian                      ... done (   0.4 sec)
Back transforming the eigenvectors                 ... done (   0.1 sec)
Now organizing SCF variables                       ... done
                      ------------------
                      INITIAL GUESS DONE (  13.5 sec)
                      ------------------
--------------
SCF ITERATIONS
--------------
ITER       Energy         Delta-E        Max-DP      RMS-DP      [F,P]     Damp
               ***  Starting incremental Fock matrix formation  ***
  0   -846.7215719371   0.000000000000 0.00994485  0.00027410  0.1344102 0.7000
  1   -846.8888560330  -0.167284095911 0.00641850  0.00020037  0.0646935 0.7000
                               ***Turning on DIIS***
  2   -846.9576027197  -0.068746686663 0.01216571  0.00038647  0.0236889 0.0000
  3   -847.0511652203  -0.093562500600 0.00556314  0.00011285  0.0416149 0.0000
  4   -847.0810701302  -0.029904909935 0.00189053  0.00004468  0.0074618 0.0000
  5   -847.0824904093  -0.001420279130 0.00082846  0.00001835  0.0019882 0.0000
  6   -847.0825958520  -0.000105442714 0.00046511  0.00001167  0.0006257 0.0000
  7   -847.0826031901  -0.000007338063 0.00008490  0.00000155  0.0003332 0.0000
  8   -847.0826042351  -0.000001045025 0.00005705  0.00000086  0.0002965 0.0000
  9   -847.0826052973  -0.000001062128 0.00002671  0.00000049  0.0000870 0.0000
 10   -847.0826054193  -0.000000122060 0.00001141  0.00000020  0.0000450 0.0000
 11   -847.0826054816  -0.000000062245 0.00000493  0.00000008  0.0000198 0.0000
 12   -847.0826054781   0.000000003475 0.00000189  0.00000004  0.0000096 0.0000
 13   -847.0826054721   0.000000005950 0.00000115  0.00000002  0.0000025 0.0000
 14   -847.0826054808  -0.000000008633 0.00000120  0.00000001  0.0000018 0.0000
                            ***DIIS convergence achieved***

               *****************************************************
               *                     SUCCESS                       *
               *           SCF CONVERGED AFTER  15 CYCLES          *
               *****************************************************

Setting up the final grid:

General Integration Accuracy     IntAcc      ...  4.670
Radial Grid Type                 RadialGrid  ... Gauss-Chebyshev
Angular Grid (max. acc.)         AngularGrid ... Lebedev-302
Angular grid pruning method      GridPruning ... 3 (G Style)
Weight generation scheme         WeightScheme... Becke
Basis function cutoff            BFCut       ...    1.0000e-11
Integration weight cutoff        WCut        ...    1.0000e-14
Grids for H and He will be reduced by one unit

# of grid points (after initial pruning)     ... 184180 (   0.2 sec)
# of grid points (after weights+screening)   ... 161585 (   4.6 sec)
nearest neighbour list constructed           ...    0.0 sec
Grid point re-assignment to atoms done       ...    0.1 sec
Grid point division into batches done        ...    0.4 sec
Reduced shell lists constructed in   11.5 sec

Total number of grid points                  ...   161585
Total number of batches                      ...     2542
Average number of points per batch           ...       63
Average number of grid points per atom       ...     4488
Average number of shells per batch           ...   128.69 (42.33%)
Average number of basis functions per batch  ...   334.81 (39.11%)
Average number of large shells per batch     ...    83.81 (65.12%)
Average number of large basis fcns per batch ...   221.95 (66.29%)
Maximum spatial batch extension              ...  20.11, 19.70, 20.54 au
Average spatial batch extension              ...   2.20,  2.50,  2.55 au

Final grid set up in   16.3 sec
Final integration                            ... done (  32.4 sec)
Change in XC energy                          ...     0.000531701
Integrated number of electrons               ...   146.001085344
Previous integrated no of electrons          ...   146.008606520

----------------
TOTAL SCF ENERGY
----------------

Total Energy       :         -847.08207381 Eh          -23050.27508 eV

Components:
Nuclear Repulsion  :         1538.39155605 Eh           41861.76245 eV
Electronic Energy  :        -2385.47362986 Eh          -64912.03753 eV

One Electron Energy:        -4198.77718306 Eh         -114254.53574 eV
Two Electron Energy:         1813.30355321 Eh           49342.49821 eV

Virial components:
Potential Energy   :        -1688.91188765 Eh          -45957.62890 eV
Kinetic Energy     :          841.82981384 Eh           22907.35382 eV
Virial Ratio       :            2.00623910


DFT components:
N(Alpha)           :       73.000542671911 electrons
N(Beta)            :       73.000542671911 electrons
N(Total)           :      146.001085343821 electrons
E(X)               :     -119.499033118281 Eh       
E(C)               :       -5.322727724093 Eh       
E(XC)              :     -124.821760842374 Eh       

---------------
SCF CONVERGENCE
---------------

  Last Energy change         ...   -2.6308e-08  Tolerance :   1.0000e-08
  Last MAX-Density change    ...    1.1430e-06  Tolerance :   1.0000e-07
  Last RMS-Density change    ...    1.6435e-08  Tolerance :   5.0000e-09
  Last DIIS Error            ...    8.6789e-07  Tolerance :   5.0000e-07

             **** THE GBW FILE WAS UPDATED (piceno.gbw) ****
             **** DENSITY FILE WAS UPDATED (piceno.scfp.tmp) ****
             **** ENERGY FILE WAS UPDATED (piceno.en.tmp) ****
----------------------
UHF SPIN CONTAMINATION
----------------------

Warning: in a DFT calculation there is little theoretical justification to 
         calculate <S**2> as in Hartree-Fock theory. We will do it anyways
         but you should keep in mind that the values have only limited relevance

Expectation value of <S**2>     :    -0.000000
Ideal value S*(S+1) for S=0.0   :     0.000000
Deviation                       :    -0.000000

----------------
ORBITAL ENERGIES
----------------
                 SPIN UP ORBITALS
  NO   OCC          E(Eh)            E(eV) 
   0   1.0000      -9.921016      -269.9646 
   1   1.0000      -9.920756      -269.9575 
   2   1.0000      -9.919594      -269.9259 
   3   1.0000      -9.919583      -269.9256 
   4   1.0000      -9.918829      -269.9051 
   5   1.0000      -9.918803      -269.9044 
   6   1.0000      -9.911941      -269.7176 
   7   1.0000      -9.911905      -269.7166 
   8   1.0000      -9.908855      -269.6336 
   9   1.0000      -9.908838      -269.6332 
  10   1.0000      -9.906492      -269.5693 
  11   1.0000      -9.906469      -269.5687 
  12   1.0000      -9.906422      -269.5675 
  13   1.0000      -9.906370      -269.5660 
  14   1.0000      -9.906302      -269.5642 
  15   1.0000      -9.906298      -269.5641 
  16   1.0000      -9.905710      -269.5481 
  17   1.0000      -9.905305      -269.5371 
  18   1.0000      -9.904791      -269.5231 
  19   1.0000      -9.904768      -269.5225 
  20   1.0000      -9.904718      -269.5211 
  21   1.0000      -9.904707      -269.5208 
  22   1.0000      -0.819604       -22.3026 
  23   1.0000      -0.804599       -21.8943 
  24   1.0000      -0.777528       -21.1576 
  25   1.0000      -0.746604       -20.3161 
  26   1.0000      -0.742397       -20.2017 
  27   1.0000      -0.714923       -19.4540 
  28   1.0000      -0.701867       -19.0988 
  29   1.0000      -0.686170       -18.6716 
  30   1.0000      -0.669116       -18.2076 
  31   1.0000      -0.652387       -17.7524 
  32   1.0000      -0.647917       -17.6307 
  33   1.0000      -0.586395       -15.9566 
  34   1.0000      -0.578716       -15.7477 
  35   1.0000      -0.575227       -15.6527 
  36   1.0000      -0.561613       -15.2823 
  37   1.0000      -0.541465       -14.7340 
  38   1.0000      -0.539567       -14.6824 
  39   1.0000      -0.492467       -13.4007 
  40   1.0000      -0.487620       -13.2688 
  41   1.0000      -0.475050       -12.9268 
  42   1.0000      -0.464746       -12.6464 
  43   1.0000      -0.452434       -12.3114 
  44   1.0000      -0.442611       -12.0441 
  45   1.0000      -0.424580       -11.5534 
  46   1.0000      -0.420286       -11.4366 
  47   1.0000      -0.412069       -11.2130 
  48   1.0000      -0.394492       -10.7347 
  49   1.0000      -0.389841       -10.6081 
  50   1.0000      -0.382261       -10.4018 
  51   1.0000      -0.380867       -10.3639 
  52   1.0000      -0.378204       -10.2915 
  53   1.0000      -0.366779        -9.9806 
  54   1.0000      -0.362630        -9.8677 
  55   1.0000      -0.359916        -9.7938 
  56   1.0000      -0.355972        -9.6865 
  57   1.0000      -0.351250        -9.5580 
  58   1.0000      -0.337107        -9.1731 
  59   1.0000      -0.329401        -8.9635 
  60   1.0000      -0.328793        -8.9469 
  61   1.0000      -0.306609        -8.3433 
  62   1.0000      -0.305595        -8.3157 
  63   1.0000      -0.294375        -8.0104 
  64   1.0000      -0.293297        -7.9810 
  65   1.0000      -0.291741        -7.9387 
  66   1.0000      -0.285122        -7.7586 
  67   1.0000      -0.269984        -7.3466 
  68   1.0000      -0.253968        -6.9108 
  69   1.0000      -0.235782        -6.4160 
  70   1.0000      -0.219220        -5.9653 
  71   1.0000      -0.202044        -5.4979 
  72   1.0000      -0.190119        -5.1734 
  73   0.0000      -0.087974        -2.3939 
  74   0.0000      -0.082914        -2.2562 
  75   0.0000      -0.065252        -1.7756 
  76   0.0000      -0.051942        -1.4134 
  77   0.0000      -0.025701        -0.6994 
  78   0.0000      -0.011931        -0.3247 
  79   0.0000       0.025288         0.6881 
  80   0.0000       0.028985         0.7887 
  81   0.0000       0.029912         0.8139 
  82   0.0000       0.031423         0.8551 
  83   0.0000       0.033261         0.9051 
  84   0.0000       0.044587         1.2133 
  85   0.0000       0.048229         1.3124 
  86   0.0000       0.065432         1.7805 
  87   0.0000       0.069311         1.8861 
  88   0.0000       0.080409         2.1880 
  89   0.0000       0.081773         2.2252 
  90   0.0000       0.085611         2.3296 
  91   0.0000       0.102853         2.7988 
  92   0.0000       0.108263         2.9460 
  93   0.0000       0.131177         3.5695 
  94   0.0000       0.133763         3.6399 
  95   0.0000       0.148351         4.0368 
  96   0.0000       0.166979         4.5437 
  97   0.0000       0.170887         4.6501 
  98   0.0000       0.174756         4.7553 
  99   0.0000       0.180793         4.9196 
 100   0.0000       0.181407         4.9363 
 101   0.0000       0.182203         4.9580 
 102   0.0000       0.201477         5.4825 
 103   0.0000       0.204828         5.5737 
 104   0.0000       0.211546         5.7565 
 105   0.0000       0.213006         5.7962 
 106   0.0000       0.215275         5.8579 
 107   0.0000       0.216472         5.8905 
 108   0.0000       0.222284         6.0486 
 109   0.0000       0.226143         6.1537 
 110   0.0000       0.230931         6.2839 
 111   0.0000       0.231497         6.2993 
 112   0.0000       0.231694         6.3047 
 113   0.0000       0.241585         6.5739 
 114   0.0000       0.245156         6.6710 
 115   0.0000       0.254776         6.9328 
 116   0.0000       0.256954         6.9921 
 117   0.0000       0.257117         6.9965 
 118   0.0000       0.262658         7.1473 
 119   0.0000       0.270413         7.3583 
 120   0.0000       0.274386         7.4664 
 121   0.0000       0.277190         7.5427 
 122   0.0000       0.285470         7.7680 
 123   0.0000       0.288417         7.8482 
 124   0.0000       0.294720         8.0197 
 125   0.0000       0.294911         8.0249 
 126   0.0000       0.300474         8.1763 
 127   0.0000       0.304705         8.2914 
 128   0.0000       0.309904         8.4329 
 129   0.0000       0.314311         8.5528 
 130   0.0000       0.319201         8.6859 
 131   0.0000       0.320976         8.7342 
 132   0.0000       0.322706         8.7813 
 133   0.0000       0.328864         8.9489 
 134   0.0000       0.329512         8.9665 
 135   0.0000       0.333038         9.0624 
 136   0.0000       0.333323         9.0702 
 137   0.0000       0.339303         9.2329 
 138   0.0000       0.351473         9.5641 
 139   0.0000       0.352082         9.5806 
 140   0.0000       0.355843         9.6830 
 141   0.0000       0.362815         9.8727 
 142   0.0000       0.364120         9.9082 
 143   0.0000       0.365110         9.9351 
 144   0.0000       0.365428         9.9438 
 145   0.0000       0.372828        10.1452 
 146   0.0000       0.377027        10.2594 
 147   0.0000       0.378387        10.2964 
 148   0.0000       0.383321        10.4307 
 149   0.0000       0.383878        10.4458 
 150   0.0000       0.392962        10.6931 
 151   0.0000       0.395782        10.7698 
 152   0.0000       0.400667        10.9027 
 153   0.0000       0.401751        10.9322 
 154   0.0000       0.403811        10.9883 
 155   0.0000       0.417133        11.3508 
 156   0.0000       0.419063        11.4033 
 157   0.0000       0.422848        11.5063 
 158   0.0000       0.426906        11.6167 
 159   0.0000       0.432536        11.7699 
 160   0.0000       0.434419        11.8211 
 161   0.0000       0.440262        11.9801 
 162   0.0000       0.443416        12.0659 
 163   0.0000       0.443656        12.0725 
 164   0.0000       0.448746        12.2110 
 165   0.0000       0.464639        12.6435 
 166   0.0000       0.469731        12.7820 
 167   0.0000       0.473335        12.8801 
 168   0.0000       0.477947        13.0056 
 169   0.0000       0.484416        13.1816 
 170   0.0000       0.485823        13.2199 
 171   0.0000       0.488722        13.2988 
 172   0.0000       0.491394        13.3715 
 173   0.0000       0.498049        13.5526 
 174   0.0000       0.509542        13.8653 
 175   0.0000       0.516621        14.0580 
 176   0.0000       0.528240        14.3741 
 177   0.0000       0.529803        14.4167 
 178   0.0000       0.530240        14.4286 
 179   0.0000       0.530904        14.4466 
 180   0.0000       0.537527        14.6269 
 181   0.0000       0.545233        14.8365 
 182   0.0000       0.554033        15.0760 
 183   0.0000       0.554388        15.0857 
 184   0.0000       0.560678        15.2568 
 185   0.0000       0.569676        15.5017 
 186   0.0000       0.593759        16.1570 
 187   0.0000       0.595874        16.2146 
 188   0.0000       0.607883        16.5413 
 189   0.0000       0.610341        16.6082 
 190   0.0000       0.615158        16.7393 
 191   0.0000       0.620535        16.8856 
 192   0.0000       0.624858        17.0033 
 193   0.0000       0.625770        17.0281 
 194   0.0000       0.632341        17.2069 
 195   0.0000       0.638840        17.3837 
 196   0.0000       0.638954        17.3868 
 197   0.0000       0.640971        17.4417 
 198   0.0000       0.649855        17.6835 
 199   0.0000       0.662714        18.0334 
 200   0.0000       0.663429        18.0528 
 201   0.0000       0.670724        18.2513 
 202   0.0000       0.674750        18.3609 
 203   0.0000       0.678791        18.4708 
 204   0.0000       0.680653        18.5215 
 205   0.0000       0.686537        18.6816 
 206   0.0000       0.691345        18.8124 
 207   0.0000       0.698475        19.0065 
 208   0.0000       0.702975        19.1289 
 209   0.0000       0.705490        19.1974 
 210   0.0000       0.705642        19.2015 
 211   0.0000       0.719940        19.5906 
 212   0.0000       0.724421        19.7125 
 213   0.0000       0.733596        19.9622 
 214   0.0000       0.738961        20.1081 
 215   0.0000       0.740546        20.1513 
 216   0.0000       0.747325        20.3357 
 217   0.0000       0.753930        20.5155 
 218   0.0000       0.768177        20.9032 
 219   0.0000       0.771561        20.9952 
 220   0.0000       0.775832        21.1115 
 221   0.0000       0.779977        21.2243 
 222   0.0000       0.780336        21.2340 
 223   0.0000       0.788891        21.4668 
 224   0.0000       0.798188        21.7198 
 225   0.0000       0.805859        21.9285 
 226   0.0000       0.809244        22.0207 
 227   0.0000       0.819724        22.3058 
 228   0.0000       0.828121        22.5343 
 229   0.0000       0.834075        22.6963 
 230   0.0000       0.839498        22.8439 
 231   0.0000       0.851085        23.1592 
 232   0.0000       0.862449        23.4684 
 233   0.0000       0.864946        23.5364 
 234   0.0000       0.865186        23.5429 
 235   0.0000       0.866596        23.5813 
 236   0.0000       0.868414        23.6308 
 237   0.0000       0.874715        23.8022 
 238   0.0000       0.878811        23.9137 
 239   0.0000       0.885605        24.0985 
 240   0.0000       0.887430        24.1482 
 241   0.0000       0.892320        24.2813 
 242   0.0000       0.899742        24.4832 
 243   0.0000       0.912167        24.8213 
 244   0.0000       0.912987        24.8436 
 245   0.0000       0.920774        25.0555 
 246   0.0000       0.926583        25.2136 
 247   0.0000       0.926852        25.2209 
 248   0.0000       0.929834        25.3021 
 249   0.0000       0.937704        25.5162 
 250   0.0000       0.947981        25.7959 
 251   0.0000       0.958273        26.0759 
 252   0.0000       0.960223        26.1290 
 253   0.0000       0.964409        26.2429 
 254   0.0000       0.977847        26.6086 
 255   0.0000       0.981000        26.6944 
 256   0.0000       0.984115        26.7791 
 257   0.0000       0.990231        26.9455 
 258   0.0000       0.996874        27.1263 
 259   0.0000       1.000274        27.2188 
 260   0.0000       1.005322        27.3562 
 261   0.0000       1.009009        27.4565 
 262   0.0000       1.017618        27.6908 
 263   0.0000       1.021528        27.7972 
 264   0.0000       1.024123        27.8678 
 265   0.0000       1.026167        27.9234 
 266   0.0000       1.035756        28.1844 
 267   0.0000       1.042362        28.3641 
 268   0.0000       1.057425        28.7740 
 269   0.0000       1.067710        29.0539 
 270   0.0000       1.069486        29.1022 
 271   0.0000       1.073103        29.2006 
 272   0.0000       1.079714        29.3805 
 273   0.0000       1.080628        29.4054 
 274   0.0000       1.083468        29.4827 
 275   0.0000       1.086957        29.5776 
 276   0.0000       1.112432        30.2708 
 277   0.0000       1.116325        30.3767 
 278   0.0000       1.137459        30.9518 
 279   0.0000       1.139774        31.0148 
 280   0.0000       1.153008        31.3749 
 281   0.0000       1.155608        31.4457 
 282   0.0000       1.161784        31.6137 
 283   0.0000       1.174006        31.9463 
 284   0.0000       1.178478        32.0680 
 285   0.0000       1.179318        32.0909 
 286   0.0000       1.179906        32.1069 
 287   0.0000       1.180313        32.1180 
 288   0.0000       1.187152        32.3040 
 289   0.0000       1.207960        32.8703 
 290   0.0000       1.216181        33.0940 
 291   0.0000       1.216676        33.1074 
 292   0.0000       1.221000        33.2251 
 293   0.0000       1.225572        33.3495 
 294   0.0000       1.234241        33.5854 
 295   0.0000       1.237926        33.6857 
 296   0.0000       1.239493        33.7283 
 297   0.0000       1.240725        33.7618 
 298   0.0000       1.247320        33.9413 
 299   0.0000       1.252142        34.0725 
 300   0.0000       1.255449        34.1625 
 301   0.0000       1.261325        34.3224 
 302   0.0000       1.271212        34.5914 
 303   0.0000       1.272819        34.6352 
 304   0.0000       1.279999        34.8306 
 305   0.0000       1.284342        34.9487 
 306   0.0000       1.290645        35.1202 
 307   0.0000       1.299658        35.3655 
 308   0.0000       1.302304        35.4375 
 309   0.0000       1.310389        35.6575 
 310   0.0000       1.312573        35.7169 
 311   0.0000       1.316278        35.8177 
 312   0.0000       1.333136        36.2765 
 313   0.0000       1.337072        36.3836 
 314   0.0000       1.343532        36.5594 
 315   0.0000       1.353564        36.8323 
 316   0.0000       1.355992        36.8984 
 317   0.0000       1.360720        37.0271 
 318   0.0000       1.371095        37.3094 
 319   0.0000       1.372091        37.3365 
 320   0.0000       1.388738        37.7895 
 321   0.0000       1.397693        38.0332 
 322   0.0000       1.404304        38.2131 
 323   0.0000       1.404872        38.2285 
 324   0.0000       1.420633        38.6574 
 325   0.0000       1.423207        38.7274 
 326   0.0000       1.426255        38.8104 
 327   0.0000       1.438393        39.1407 
 328   0.0000       1.445526        39.3347 
 329   0.0000       1.447988        39.4018 
 330   0.0000       1.476592        40.1801 
 331   0.0000       1.480664        40.2909 
 332   0.0000       1.506331        40.9893 
 333   0.0000       1.508215        41.0406 
 334   0.0000       1.513107        41.1737 
 335   0.0000       1.520325        41.3701 
 336   0.0000       1.525809        41.5194 
 337   0.0000       1.541759        41.9534 
 338   0.0000       1.544726        42.0341 
 339   0.0000       1.549705        42.1696 
 340   0.0000       1.560314        42.4583 
 341   0.0000       1.568393        42.6781 
 342   0.0000       1.585670        43.1483 
 343   0.0000       1.593251        43.3546 
 344   0.0000       1.593926        43.3729 
 345   0.0000       1.618089        44.0304 
 346   0.0000       1.628481        44.3132 
 347   0.0000       1.629347        44.3368 
 348   0.0000       1.666532        45.3486 
 349   0.0000       1.674632        45.5691 
 350   0.0000       1.675200        45.5845 
 351   0.0000       1.693284        46.0766 
 352   0.0000       1.711242        46.5653 
 353   0.0000       1.727375        47.0043 
 354   0.0000       1.757243        47.8170 
 355   0.0000       1.759661        47.8828 
 356   0.0000       1.782095        48.4933 
 357   0.0000       1.784591        48.5612 
 358   0.0000       1.811798        49.3015 
 359   0.0000       1.831004        49.8241 
 360   0.0000       1.838967        50.0408 
 361   0.0000       1.839966        50.0680 
 362   0.0000       1.841904        50.1208 
 363   0.0000       1.871720        50.9321 
 364   0.0000       1.884644        51.2838 
 365   0.0000       1.893385        51.5216 
 366   0.0000       1.905333        51.8467 
 367   0.0000       1.909740        51.9667 
 368   0.0000       1.921418        52.2844 
 369   0.0000       1.935870        52.6777 
 370   0.0000       1.949292        53.0429 
 371   0.0000       1.951396        53.1002 
 372   0.0000       1.966912        53.5224 
 373   0.0000       1.971743        53.6538 
 374   0.0000       1.998262        54.3755 
 375   0.0000       2.010638        54.7122 
 376   0.0000       2.014098        54.8064 
 377   0.0000       2.024357        55.0855 
 378   0.0000       2.034793        55.3695 
 379   0.0000       2.051533        55.8250 
 380   0.0000       2.054377        55.9024 
 381   0.0000       2.070004        56.3277 
 382   0.0000       2.072965        56.4083 
 383   0.0000       2.073165        56.4137 
 384   0.0000       2.078573        56.5608 
 385   0.0000       2.094189        56.9858 
 386   0.0000       2.099212        57.1225 
 387   0.0000       2.115537        57.5667 
 388   0.0000       2.122935        57.7680 
 389   0.0000       2.152250        58.5657 
 390   0.0000       2.152804        58.5808 
 391   0.0000       2.154825        58.6358 
 392   0.0000       2.165743        58.9329 
 393   0.0000       2.190468        59.6057 
 394   0.0000       2.191520        59.6343 
 395   0.0000       2.197762        59.8041 
 396   0.0000       2.210349        60.1466 
 397   0.0000       2.234651        60.8079 
 398   0.0000       2.240473        60.9664 
 399   0.0000       2.254450        61.3467 
 400   0.0000       2.256787        61.4103 
 401   0.0000       2.275102        61.9087 
 402   0.0000       2.277736        61.9803 
 403   0.0000       2.293188        62.4008 
 404   0.0000       2.299535        62.5735 
 405   0.0000       2.320905        63.1550 
 406   0.0000       2.326933        63.3191 
 407   0.0000       2.329981        63.4020 
 408   0.0000       2.338094        63.6228 
 409   0.0000       2.343845        63.7793 
 410   0.0000       2.359173        64.1964 
 411   0.0000       2.359937        64.2171 
 412   0.0000       2.368618        64.4534 
 413   0.0000       2.370272        64.4984 
 414   0.0000       2.372326        64.5543 
 415   0.0000       2.381409        64.8014 
 416   0.0000       2.387305        64.9619 
 417   0.0000       2.389082        65.0102 
 418   0.0000       2.399364        65.2900 
 419   0.0000       2.402538        65.3764 
 420   0.0000       2.410286        65.5872 
 421   0.0000       2.412235        65.6402 
 422   0.0000       2.416734        65.7627 
 423   0.0000       2.418567        65.8126 
 424   0.0000       2.419413        65.8356 
 425   0.0000       2.425824        66.0100 
 426   0.0000       2.427403        66.0530 
 427   0.0000       2.443902        66.5020 
 428   0.0000       2.460528        66.9544 
 429   0.0000       2.463384        67.0321 
 430   0.0000       2.473498        67.3073 
 431   0.0000       2.481714        67.5309 
 432   0.0000       2.488834        67.7246 
 433   0.0000       2.491473        67.7964 
 434   0.0000       2.501065        68.0574 
 435   0.0000       2.501643        68.0732 
 436   0.0000       2.518051        68.5197 
 437   0.0000       2.531121        68.8753 
 438   0.0000       2.539869        69.1134 
 439   0.0000       2.544120        69.2290 
 440   0.0000       2.551821        69.4386 
 441   0.0000       2.553101        69.4734 
 442   0.0000       2.554692        69.5167 
 443   0.0000       2.560704        69.6803 
 444   0.0000       2.565603        69.8136 
 445   0.0000       2.570356        69.9429 
 446   0.0000       2.579315        70.1867 
 447   0.0000       2.585936        70.3669 
 448   0.0000       2.600097        70.7522 
 449   0.0000       2.600864        70.7731 
 450   0.0000       2.612190        71.0813 
 451   0.0000       2.618386        71.2499 
 452   0.0000       2.622908        71.3730 
 453   0.0000       2.627521        71.4985 
 454   0.0000       2.629983        71.5655 
 455   0.0000       2.632678        71.6388 
 456   0.0000       2.641694        71.8842 
 457   0.0000       2.647975        72.0551 
 458   0.0000       2.650655        72.1280 
 459   0.0000       2.653191        72.1970 
 460   0.0000       2.656342        72.2827 
 461   0.0000       2.656685        72.2921 
 462   0.0000       2.661113        72.4126 
 463   0.0000       2.663641        72.4813 
 464   0.0000       2.683159        73.0125 
 465   0.0000       2.690596        73.2148 
 466   0.0000       2.698249        73.4231 
 467   0.0000       2.714720        73.8713 
 468   0.0000       2.715408        73.8900 
 469   0.0000       2.724141        74.1276 
 470   0.0000       2.729471        74.2727 
 471   0.0000       2.739506        74.5457 
 472   0.0000       2.742035        74.6146 
 473   0.0000       2.752099        74.8884 
 474   0.0000       2.763378        75.1953 
 475   0.0000       2.783720        75.7489 
 476   0.0000       2.786353        75.8205 
 477   0.0000       2.787066        75.8399 
 478   0.0000       2.790818        75.9420 
 479   0.0000       2.800762        76.2126 
 480   0.0000       2.804277        76.3083 
 481   0.0000       2.816675        76.6456 
 482   0.0000       2.817785        76.6758 
 483   0.0000       2.824995        76.8720 
 484   0.0000       2.834268        77.1243 
 485   0.0000       2.836295        77.1795 
 486   0.0000       2.837318        77.2073 
 487   0.0000       2.842539        77.3494 
 488   0.0000       2.846871        77.4673 
 489   0.0000       2.849158        77.5295 
 490   0.0000       2.861042        77.8529 
 491   0.0000       2.866463        78.0004 
 492   0.0000       2.871697        78.1428 
 493   0.0000       2.887722        78.5789 
 494   0.0000       2.888575        78.6021 
 495   0.0000       2.890990        78.6678 
 496   0.0000       2.895078        78.7791 
 497   0.0000       2.898647        78.8762 
 498   0.0000       2.900679        78.9315 
 499   0.0000       2.910941        79.2107 
 500   0.0000       2.911857        79.2356 
 501   0.0000       2.918436        79.4147 
 502   0.0000       2.918972        79.4293 
 503   0.0000       2.925713        79.6127 
 504   0.0000       2.928373        79.6851 
 505   0.0000       2.930147        79.7334 
 506   0.0000       2.936523        79.9069 
 507   0.0000       2.940361        80.0113 
 508   0.0000       2.943887        80.1072 
 509   0.0000       2.944161        80.1147 
 510   0.0000       2.944329        80.1193 
 511   0.0000       2.959568        80.5339 
 512   0.0000       2.962043        80.6013 
 513   0.0000       2.963114        80.6304 
 514   0.0000       2.965094        80.6843 
 515   0.0000       2.968753        80.7839 
 516   0.0000       2.982588        81.1604 
 517   0.0000       2.984829        81.2213 
 518   0.0000       2.992734        81.4364 
 519   0.0000       2.993343        81.4530 
 520   0.0000       2.994978        81.4975 
 521   0.0000       3.009773        81.9001 
 522   0.0000       3.011013        81.9338 
 523   0.0000       3.012221        81.9667 
 524   0.0000       3.024712        82.3066 
 525   0.0000       3.026552        82.3567 
 526   0.0000       3.027330        82.3778 
 527   0.0000       3.031526        82.4920 
 528   0.0000       3.032491        82.5183 
 529   0.0000       3.045150        82.8627 
 530   0.0000       3.050937        83.0202 
 531   0.0000       3.054352        83.1132 
 532   0.0000       3.054498        83.1171 
 533   0.0000       3.065665        83.4210 
 534   0.0000       3.071640        83.5836 
 535   0.0000       3.075789        83.6965 
 536   0.0000       3.082373        83.8756 
 537   0.0000       3.099734        84.3480 
 538   0.0000       3.100405        84.3663 
 539   0.0000       3.102822        84.4321 
 540   0.0000       3.108107        84.5759 
 541   0.0000       3.112487        84.6951 
 542   0.0000       3.119792        84.8939 
 543   0.0000       3.120072        84.9015 
 544   0.0000       3.132958        85.2521 
 545   0.0000       3.135328        85.3166 
 546   0.0000       3.137011        85.3624 
 547   0.0000       3.150091        85.7183 
 548   0.0000       3.155310        85.8603 
 549   0.0000       3.157157        85.9106 
 550   0.0000       3.168939        86.2312 
 551   0.0000       3.175048        86.3974 
 552   0.0000       3.182230        86.5929 
 553   0.0000       3.186095        86.6981 
 554   0.0000       3.201230        87.1099 
 555   0.0000       3.201884        87.1277 
 556   0.0000       3.202916        87.1558 
 557   0.0000       3.205890        87.2367 
 558   0.0000       3.215710        87.5039 
 559   0.0000       3.225250        87.7635 
 560   0.0000       3.227767        87.8320 
 561   0.0000       3.231122        87.9233 
 562   0.0000       3.238347        88.1199 
 563   0.0000       3.242708        88.2386 
 564   0.0000       3.244771        88.2947 
 565   0.0000       3.248855        88.4058 
 566   0.0000       3.257130        88.6310 
 567   0.0000       3.281733        89.3005 
 568   0.0000       3.282344        89.3171 
 569   0.0000       3.287019        89.4443 
 570   0.0000       3.289773        89.5193 
 571   0.0000       3.292272        89.5873 
 572   0.0000       3.300735        89.8176 
 573   0.0000       3.313242        90.1579 
 574   0.0000       3.315879        90.2296 
 575   0.0000       3.327874        90.5561 
 576   0.0000       3.328492        90.5729 
 577   0.0000       3.332050        90.6697 
 578   0.0000       3.333072        90.6975 
 579   0.0000       3.339246        90.8655 
 580   0.0000       3.353354        91.2494 
 581   0.0000       3.353716        91.2592 
 582   0.0000       3.363316        91.5205 
 583   0.0000       3.365210        91.5720 
 584   0.0000       3.370668        91.7205 
 585   0.0000       3.387940        92.1905 
 586   0.0000       3.397673        92.4554 
 587   0.0000       3.398164        92.4688 
 588   0.0000       3.404115        92.6307 
 589   0.0000       3.409591        92.7797 
 590   0.0000       3.421621        93.1070 
 591   0.0000       3.422873        93.1411 
 592   0.0000       3.424443        93.1838 
 593   0.0000       3.435684        93.4897 
 594   0.0000       3.450191        93.8845 
 595   0.0000       3.460069        94.1533 
 596   0.0000       3.460357        94.1611 
 597   0.0000       3.464327        94.2691 
 598   0.0000       3.474711        94.5517 
 599   0.0000       3.479502        94.6821 
 600   0.0000       3.485936        94.8571 
 601   0.0000       3.492145        95.0261 
 602   0.0000       3.493416        95.0607 
 603   0.0000       3.510631        95.5291 
 604   0.0000       3.513964        95.6198 
 605   0.0000       3.514568        95.6363 
 606   0.0000       3.552961        96.6810 
 607   0.0000       3.557851        96.8140 
 608   0.0000       3.559640        96.8627 
 609   0.0000       3.565345        97.0180 
 610   0.0000       3.571822        97.1942 
 611   0.0000       3.586412        97.5912 
 612   0.0000       3.602916        98.0403 
 613   0.0000       3.606299        98.1324 
 614   0.0000       3.610295        98.2411 
 615   0.0000       3.618145        98.4547 
 616   0.0000       3.624056        98.6156 
 617   0.0000       3.630287        98.7851 
 618   0.0000       3.646264        99.2199 
 619   0.0000       3.648483        99.2803 
 620   0.0000       3.653913        99.4280 
 621   0.0000       3.657461        99.5246 
 622   0.0000       3.665526        99.7440 
 623   0.0000       3.667754        99.8047 
 624   0.0000       3.668476        99.8243 
 625   0.0000       3.678135       100.0871 
 626   0.0000       3.692056       100.4660 
 627   0.0000       3.692371       100.4745 
 628   0.0000       3.694014       100.5192 
 629   0.0000       3.694867       100.5424 
 630   0.0000       3.718626       101.1890 
 631   0.0000       3.722733       101.3007 
 632   0.0000       3.724213       101.3410 
 633   0.0000       3.739417       101.7547 
 634   0.0000       3.741796       101.8194 
 635   0.0000       3.742782       101.8463 
 636   0.0000       3.742960       101.8511 
 637   0.0000       3.749563       102.0308 
 638   0.0000       3.756658       102.2239 
 639   0.0000       3.766709       102.4974 
 640   0.0000       3.781334       102.8953 
 641   0.0000       3.782517       102.9275 
 642   0.0000       3.790214       103.1370 
 643   0.0000       3.800822       103.4256 
 644   0.0000       3.803185       103.4899 
 645   0.0000       3.804631       103.5293 
 646   0.0000       3.811292       103.7105 
 647   0.0000       3.815954       103.8374 
 648   0.0000       3.825127       104.0870 
 649   0.0000       3.840809       104.5137 
 650   0.0000       3.861653       105.0809 
 651   0.0000       3.878793       105.5473 
 652   0.0000       3.879953       105.5789 
 653   0.0000       3.880925       105.6053 
 654   0.0000       3.887995       105.7977 
 655   0.0000       3.893489       105.9472 
 656   0.0000       3.896966       106.0418 
 657   0.0000       3.900958       106.1505 
 658   0.0000       3.901931       106.1769 
 659   0.0000       3.907721       106.3345 
 660   0.0000       3.915326       106.5414 
 661   0.0000       3.918616       106.6310 
 662   0.0000       3.925496       106.8182 
 663   0.0000       3.928455       106.8987 
 664   0.0000       3.951380       107.5225 
 665   0.0000       3.957420       107.6869 
 666   0.0000       3.960739       107.7772 
 667   0.0000       3.960815       107.7793 
[...]
  8 C s       :    -0.000000  s :    -0.000000
      pz      :    -0.000000  p :    -0.000000
      px      :    -0.000000
      py      :    -0.000000
      dz2     :     0.000000  d :    -0.000000
      dxz     :    -0.000000
      dyz     :    -0.000000
      dx2y2   :    -0.000000
      dxy     :     0.000000
      f0      :     0.000000  f :     0.000000
      f+1     :    -0.000000
      f-1     :     0.000000
      f+2     :     0.000000
      f-2     :     0.000000
      f+3     :     0.000000
      f-3     :     0.000000
  9 C s       :    -0.000000  s :    -0.000000
      pz      :    -0.000000  p :    -0.000000
      px      :    -0.000000
      py      :    -0.000000
      dz2     :    -0.000000  d :    -0.000000
      dxz     :     0.000000
      dyz     :    -0.000000
      dx2y2   :    -0.000000
      dxy     :    -0.000000
      f0      :    -0.000000  f :     0.000000
      f+1     :    -0.000000
      f-1     :     0.000000
      f+2     :    -0.000000
      f-2     :     0.000000
      f+3     :     0.000000
      f-3     :    -0.000000
 10 C s       :    -0.000000  s :    -0.000000
      pz      :     0.000000  p :    -0.000000
      px      :    -0.000000
      py      :     0.000000
      dz2     :     0.000000  d :     0.000000
      dxz     :     0.000000
      dyz     :    -0.000000
      dx2y2   :     0.000000
      dxy     :     0.000000
      f0      :    -0.000000  f :    -0.000000
      f+1     :    -0.000000
      f-1     :    -0.000000
      f+2     :     0.000000
      f-2     :    -0.000000
      f+3     :    -0.000000
      f-3     :    -0.000000
 11 C s       :    -0.000000  s :    -0.000000
      pz      :     0.000000  p :     0.000000
      px      :     0.000000
      py      :    -0.000000
      dz2     :     0.000000  d :     0.000000
      dxz     :     0.000000
      dyz     :     0.000000
      dx2y2   :    -0.000000
      dxy     :     0.000000
      f0      :     0.000000  f :     0.000000
      f+1     :     0.000000
      f-1     :     0.000000
      f+2     :    -0.000000
      f-2     :     0.000000
      f+3     :     0.000000
      f-3     :    -0.000000
 12 C s       :    -0.000000  s :    -0.000000
      pz      :     0.000000  p :     0.000000
      px      :     0.000000
      py      :     0.000000
      dz2     :     0.000000  d :     0.000000
      dxz     :    -0.000000
      dyz     :     0.000000
      dx2y2   :     0.000000
      dxy     :     0.000000
      f0      :    -0.000000  f :     0.000000
      f+1     :     0.000000
      f-1     :    -0.000000
      f+2     :    -0.000000
      f-2     :    -0.000000
      f+3     :    -0.000000
      f-3     :     0.000000
 13 C s       :    -0.000000  s :    -0.000000
      pz      :    -0.000000  p :    -0.000000
      px      :    -0.000000
      py      :     0.000000
      dz2     :    -0.000000  d :     0.000000
      dxz     :     0.000000
      dyz     :    -0.000000
      dx2y2   :     0.000000
      dxy     :    -0.000000
      f0      :     0.000000  f :     0.000000
      f+1     :     0.000000
      f-1     :     0.000000
      f+2     :    -0.000000
      f-2     :     0.000000
      f+3     :     0.000000
      f-3     :     0.000000
 14 C s       :     0.000000  s :     0.000000
      pz      :     0.000000  p :     0.000000
      px      :    -0.000000
      py      :     0.000000
      dz2     :     0.000000  d :     0.000000
      dxz     :    -0.000000
      dyz     :     0.000000
      dx2y2   :    -0.000000
      dxy     :     0.000000
      f0      :    -0.000000  f :    -0.000000
      f+1     :    -0.000000
      f-1     :    -0.000000
      f+2     :    -0.000000
      f-2     :    -0.000000
      f+3     :    -0.000000
      f-3     :    -0.000000
 15 C s       :     0.000000  s :     0.000000
      pz      :     0.000000  p :     0.000000
      px      :     0.000000
      py      :     0.000000
      dz2     :     0.000000  d :    -0.000000
      dxz     :     0.000000
      dyz     :    -0.000000
      dx2y2   :     0.000000
      dxy     :    -0.000000
      f0      :     0.000000  f :     0.000000
      f+1     :    -0.000000
      f-1     :    -0.000000
      f+2     :    -0.000000
      f-2     :     0.000000
      f+3     :     0.000000
      f-3     :     0.000000
 16 C s       :    -0.000000  s :    -0.000000
      pz      :    -0.000000  p :    -0.000000
      px      :    -0.000000
      py      :    -0.000000
      dz2     :    -0.000000  d :    -0.000000
      dxz     :     0.000000
      dyz     :    -0.000000
      dx2y2   :    -0.000000
      dxy     :    -0.000000
      f0      :     0.000000  f :     0.000000
      f+1     :     0.000000
      f-1     :     0.000000
      f+2     :     0.000000
      f-2     :     0.000000
      f+3     :     0.000000
      f-3     :     0.000000
 17 C s       :     0.000000  s :     0.000000
      pz      :     0.000000  p :     0.000000
      px      :    -0.000000
      py      :     0.000000
      dz2     :     0.000000  d :     0.000000
      dxz     :    -0.000000
      dyz     :     0.000000
      dx2y2   :    -0.000000
      dxy     :    -0.000000
      f0      :    -0.000000  f :    -0.000000
      f+1     :     0.000000
      f-1     :    -0.000000
      f+2     :    -0.000000
      f-2     :    -0.000000
      f+3     :    -0.000000
      f-3     :     0.000000
 18 C s       :    -0.000000  s :    -0.000000
      pz      :     0.000000  p :     0.000000
      px      :     0.000000
      py      :     0.000000
      dz2     :     0.000000  d :    -0.000000
      dxz     :    -0.000000
      dyz     :    -0.000000
      dx2y2   :    -0.000000
      dxy     :     0.000000
      f0      :     0.000000  f :     0.000000
      f+1     :    -0.000000
      f-1     :     0.000000
      f+2     :    -0.000000
      f-2     :    -0.000000
      f+3     :    -0.000000
      f-3     :     0.000000
 19 C s       :    -0.000000  s :    -0.000000
      pz      :    -0.000000  p :    -0.000000
      px      :    -0.000000
      py      :     0.000000
      dz2     :    -0.000000  d :     0.000000
      dxz     :     0.000000
      dyz     :     0.000000
      dx2y2   :    -0.000000
      dxy     :    -0.000000
      f0      :     0.000000  f :     0.000000
      f+1     :     0.000000
      f-1     :     0.000000
      f+2     :     0.000000
      f-2     :     0.000000
      f+3     :     0.000000
      f-3     :    -0.000000
 20 C s       :    -0.000000  s :    -0.000000
      pz      :     0.000000  p :     0.000000
      px      :    -0.000000
      py      :     0.000000
      dz2     :    -0.000000  d :     0.000000
      dxz     :    -0.000000
      dyz     :     0.000000
      dx2y2   :     0.000000
      dxy     :     0.000000
      f0      :    -0.000000  f :    -0.000000
      f+1     :     0.000000
      f-1     :    -0.000000
      f+2     :    -0.000000
      f-2     :    -0.000000
      f+3     :    -0.000000
      f-3     :    -0.000000
 21 C s       :    -0.000000  s :    -0.000000
      pz      :    -0.000000  p :    -0.000000
      px      :    -0.000000
      py      :    -0.000000
      dz2     :     0.000000  d :    -0.000000
      dxz     :    -0.000000
      dyz     :    -0.000000
      dx2y2   :    -0.000000
      dxy     :    -0.000000
      f0      :     0.000000  f :     0.000000
      f+1     :     0.000000
      f-1     :    -0.000000
      f+2     :    -0.000000
      f-2     :    -0.000000
      f+3     :     0.000000
      f-3     :     0.000000
 22 H s       :    -0.000000  s :    -0.000000
      pz      :    -0.000000  p :    -0.000000
      px      :    -0.000000
      py      :    -0.000000
      dz2     :     0.000000  d :     0.000000
      dxz     :     0.000000
      dyz     :     0.000000
      dx2y2   :     0.000000
      dxy     :    -0.000000
 23 H s       :     0.000000  s :     0.000000
      pz      :     0.000000  p :     0.000000
      px      :    -0.000000
      py      :     0.000000
      dz2     :    -0.000000  d :    -0.000000
      dxz     :    -0.000000
      dyz     :    -0.000000
      dx2y2   :     0.000000
      dxy     :    -0.000000
 24 H s       :    -0.000000  s :    -0.000000
      pz      :     0.000000  p :     0.000000
      px      :    -0.000000
      py      :     0.000000
      dz2     :     0.000000  d :     0.000000
      dxz     :     0.000000
      dyz     :     0.000000
      dx2y2   :     0.000000
      dxy     :     0.000000
 25 H s       :    -0.000000  s :    -0.000000
      pz      :    -0.000000  p :    -0.000000
      px      :     0.000000
      py      :    -0.000000
      dz2     :    -0.000000  d :     0.000000
      dxz     :     0.000000
      dyz     :     0.000000
      dx2y2   :     0.000000
      dxy     :    -0.000000
 26 H s       :     0.000000  s :     0.000000
      pz      :     0.000000  p :     0.000000
      px      :    -0.000000
      py      :     0.000000
      dz2     :    -0.000000  d :    -0.000000
      dxz     :     0.000000
      dyz     :    -0.000000
      dx2y2   :     0.000000
      dxy     :    -0.000000
 27 H s       :     0.000000  s :     0.000000
      pz      :     0.000000  p :     0.000000
      px      :    -0.000000
      py      :     0.000000
      dz2     :    -0.000000  d :    -0.000000
      dxz     :     0.000000
      dyz     :     0.000000
      dx2y2   :    -0.000000
      dxy     :    -0.000000
 28 H s       :    -0.000000  s :    -0.000000
      pz      :     0.000000  p :     0.000000
      px      :     0.000000
      py      :     0.000000
      dz2     :     0.000000  d :     0.000000
      dxz     :     0.000000
      dyz     :     0.000000
      dx2y2   :     0.000000
      dxy     :     0.000000
 29 H s       :     0.000000  s :     0.000000
      pz      :     0.000000  p :     0.000000
      px      :     0.000000
      py      :     0.000000
      dz2     :    -0.000000  d :    -0.000000
      dxz     :    -0.000000
      dyz     :    -0.000000
      dx2y2   :    -0.000000
      dxy     :    -0.000000
 30 H s       :     0.000000  s :     0.000000
      pz      :    -0.000000  p :     0.000000
      px      :     0.000000
      py      :     0.000000
      dz2     :     0.000000  d :    -0.000000
      dxz     :    -0.000000
      dyz     :    -0.000000
      dx2y2   :    -0.000000
      dxy     :     0.000000
 31 H s       :    -0.000000  s :    -0.000000
      pz      :     0.000000  p :     0.000000
      px      :    -0.000000
      py      :     0.000000
      dz2     :    -0.000000  d :    -0.000000
      dxz     :     0.000000
      dyz     :    -0.000000
      dx2y2   :    -0.000000
      dxy     :     0.000000
 32 H s       :    -0.000000  s :    -0.000000
      pz      :    -0.000000  p :    -0.000000
      px      :     0.000000
      py      :     0.000000
      dz2     :     0.000000  d :     0.000000
      dxz     :     0.000000
      dyz     :    -0.000000
      dx2y2   :    -0.000000
      dxy     :     0.000000
 33 H s       :     0.000000  s :     0.000000
      pz      :     0.000000  p :     0.000000
      px      :     0.000000
      py      :     0.000000
      dz2     :     0.000000  d :    -0.000000
      dxz     :    -0.000000
      dyz     :    -0.000000
      dx2y2   :    -0.000000
      dxy     :    -0.000000
 34 H s       :     0.000000  s :     0.000000
      pz      :     0.000000  p :     0.000000
      px      :    -0.000000
      py      :    -0.000000
      dz2     :    -0.000000  d :    -0.000000
      dxz     :    -0.000000
      dyz     :     0.000000
      dx2y2   :    -0.000000
      dxy     :    -0.000000
 35 H s       :     0.000000  s :     0.000000
      pz      :     0.000000  p :     0.000000
      px      :    -0.000000
      py      :     0.000000
      dz2     :    -0.000000  d :    -0.000000
      dxz     :    -0.000000
      dyz     :    -0.000000
      dx2y2   :    -0.000000
      dxy     :    -0.000000


                      *****************************
                      * MAYER POPULATION ANALYSIS *
                      *****************************

  NA   - Mulliken gross atomic population
  ZA   - Total nuclear charge
  QA   - Mulliken gross atomic charge
  VA   - Mayer's total valence
  BVA  - Mayer's bonded valence
  FA   - Mayer's free valence

  ATOM       NA         ZA         QA         VA         BVA        FA
  0 C      6.1250     6.0000    -0.1250     3.8702     3.8702     0.0000
  1 C      6.1416     6.0000    -0.1416     3.8450     3.8450    -0.0000
  2 C      6.1575     6.0000    -0.1575     3.8510     3.8510     0.0000
  3 C      5.9105     6.0000     0.0895     3.7485     3.7485    -0.0000
  4 C      5.8897     6.0000     0.1103     3.8068     3.8068     0.0000
  5 C      6.1483     6.0000    -0.1483     3.8299     3.8299    -0.0000
  6 C      6.1744     6.0000    -0.1744     3.8399     3.8399     0.0000
  7 C      5.9724     6.0000     0.0276     3.8156     3.8156    -0.0000
  8 C      5.9168     6.0000     0.0832     3.7584     3.7584     0.0000
  9 C      6.1822     6.0000    -0.1822     3.8406     3.8406     0.0000
 10 C      6.1758     6.0000    -0.1758     3.8422     3.8422    -0.0000
 11 C      6.1818     6.0000    -0.1818     3.8400     3.8400    -0.0000
 12 C      5.9696     6.0000     0.0304     3.8113     3.8113     0.0000
 13 C      5.9135     6.0000     0.0865     3.7534     3.7534     0.0000
 14 C      6.1898     6.0000    -0.1898     3.8427     3.8427     0.0000
 15 C      5.8897     6.0000     0.1103     3.8063     3.8063    -0.0000
 16 C      5.9119     6.0000     0.0881     3.7485     3.7485     0.0000
 17 C      6.1709     6.0000    -0.1709     3.8433     3.8433     0.0000
 18 C      6.1413     6.0000    -0.1413     3.8263     3.8263    -0.0000
 19 C      6.1464     6.0000    -0.1464     3.8408     3.8408    -0.0000
 20 C      6.1240     6.0000    -0.1240     3.8686     3.8686    -0.0000
 21 C      6.1552     6.0000    -0.1552     3.8539     3.8539    -0.0000
 22 H      0.9001     1.0000     0.0999     1.0013     1.0013    -0.0000
 23 H      0.8797     1.0000     0.1203     0.9979     0.9979    -0.0000
 24 H      0.8855     1.0000     0.1145     1.0049     1.0049     0.0000
 25 H      0.8840     1.0000     0.1160     1.0137     1.0137     0.0000
 26 H      0.8882     1.0000     0.1118     1.0063     1.0063    -0.0000
 27 H      0.8828     1.0000     0.1172     1.0122     1.0122     0.0000
 28 H      0.8854     1.0000     0.1146     1.0153     1.0153     0.0000
 29 H      0.8832     1.0000     0.1168     1.0145     1.0145     0.0000
 30 H      0.8803     1.0000     0.1197     1.0115     1.0115     0.0000
 31 H      0.8894     1.0000     0.1106     1.0070     1.0070    -0.0000
 32 H      0.8868     1.0000     0.1132     1.0147     1.0147    -0.0000
 33 H      0.8785     1.0000     0.1215     0.9975     0.9975    -0.0000
 34 H      0.9000     1.0000     0.1000     1.0013     1.0013    -0.0000
 35 H      0.8878     1.0000     0.1122     1.0057     1.0057    -0.0000

  Mayer bond orders larger than 0.1
B(  0-C ,  1-C ) :   1.2760 B(  0-C ,  2-C ) :   1.4449 B(  0-C , 22-H ) :   0.9759 
B(  1-C ,  5-C ) :   1.4252 B(  1-C , 23-H ) :   0.9797 B(  2-C ,  3-C ) :   1.2309 
B(  2-C , 24-H ) :   0.9805 B(  3-C ,  4-C ) :   1.2195 B(  3-C ,  6-C ) :   1.1408 
B(  4-C ,  5-C ) :   1.2626 B(  4-C ,  7-C ) :   1.1538 B(  5-C , 25-H ) :   0.9650 
B(  6-C ,  9-C ) :   1.5128 B(  6-C , 26-H ) :   0.9913 B(  7-C ,  8-C ) :   1.2536 
B(  7-C , 10-C ) :   1.2088 B(  8-C ,  9-C ) :   1.1723 B(  8-C , 13-C ) :   1.1661 
B(  9-C , 27-H ) :   0.9715 B( 10-C , 11-C ) :   1.4721 B( 10-C , 28-H ) :   0.9771 
B( 11-C , 12-C ) :   1.2060 B( 11-C , 29-H ) :   0.9771 B( 12-C , 13-C ) :   1.2534 
B( 12-C , 15-C ) :   1.1545 B( 13-C , 14-C ) :   1.1698 B( 14-C , 17-C ) :   1.5152 
B( 14-C , 30-H ) :   0.9716 B( 15-C , 16-C ) :   1.2178 B( 15-C , 18-C ) :   1.2627 
B( 16-C , 17-C ) :   1.1423 B( 16-C , 21-C ) :   1.2323 B( 17-C , 31-H ) :   0.9912 
B( 18-C , 19-C ) :   1.4231 B( 18-C , 32-H ) :   0.9656 B( 19-C , 20-C ) :   1.2733 
B( 19-C , 33-H ) :   0.9805 B( 20-C , 21-C ) :   1.4467 B( 20-C , 34-H ) :   0.9759 
B( 21-C , 35-H ) :   0.9810 

-------
TIMINGS
-------

Total SCF time: 0 days 0 hours 3 min 15 sec 

Total time                  ....     195.123 sec
Sum of individual times     ....     242.506 sec  (124.3%)

Fock matrix formation       ....     155.081 sec  ( 79.5%)
  Coulomb formation         ....      71.997 sec  ( 46.4% of F)
  Split-RI-J                ....      71.809 sec  ( 46.3% of F)
  XC integration            ....      82.824 sec  ( 53.4% of F)
    Basis function eval.    ....      20.421 sec  ( 24.7% of XC)
    Density eval.           ....      32.038 sec  ( 38.7% of XC)
    XC-Functional eval.     ....       0.877 sec  (  1.1% of XC)
    XC-Potential eval.      ....      27.079 sec  ( 32.7% of XC)
Diagonalization             ....       9.729 sec  (  5.0%)
Density matrix formation    ....       0.526 sec  (  0.3%)
Population analysis         ....       5.187 sec  (  2.7%)
Initial guess               ....      48.274 sec  ( 24.7%)
Orbital Transformation      ....       0.000 sec  (  0.0%)
Orbital Orthonormalization  ....      48.140 sec  ( 24.7%)
DIIS solution               ....       3.439 sec  (  1.8%)
Grid generation             ....      20.270 sec  ( 10.4%)

-------------------------   --------------------
FINAL SINGLE POINT ENERGY      -847.089905662711
-------------------------   --------------------

                                *** OPTIMIZATION RUN DONE ***

                            ***************************************
                            *     ORCA property calculations      *
                            ***************************************

                                    ---------------------
                                    Active property flags
                                    ---------------------
   (+) Dipole Moment


------------------------------------------------------------------------------
                       ORCA ELECTRIC PROPERTIES CALCULATION
------------------------------------------------------------------------------

Dipole Moment Calculation                       ... on
Quadrupole Moment Calculation                   ... off
Polarizability Calculation                      ... off
GBWName                                         ... piceno.gbw
Electron density file                           ... piceno.scfp.tmp

-------------
DIPOLE MOMENT
-------------
                                X             Y             Z
Electronic contribution:     -0.01278      -0.69790      -0.72079
Nuclear contribution   :      0.01368       0.71029       0.73349
                        -----------------------------------------
Total Dipole Moment    :      0.00091       0.01238       0.01269
                        -----------------------------------------
Magnitude (a.u.)       :      0.01776
Magnitude (Debye)      :      0.04514


Timings for individual modules:

Sum of individual times         ...     5492.396 sec (=  91.540 min)
GTO integral calculation        ...       16.308 sec (=   0.272 min)   0.3 %
SCF iterations                  ...     2260.268 sec (=  37.671 min)  41.2 %
SCF Gradient evaluation         ...     3214.418 sec (=  53.574 min)  58.5 %
Geometry relaxation             ...        1.401 sec (=   0.023 min)   0.0 %
                             ****ORCA TERMINATED NORMALLY****
TOTAL RUN TIME: 0 days 1 hours 31 minutes 34 seconds 450 msec
